8  
angstroms, final, "chair" Final energy = -50.2257135279 Ry
H        2.460673809   1.420668699  10.925222338
H        3.691010952   3.551680064  10.925221099
C        2.460673809   1.420670661  12.041897005
C        3.691010952   3.551676104  12.041896057
C        2.460673809   0.000000229  12.495554031
C        3.691010952   2.131008082  12.495545617
H        2.460673809  -0.000005410  13.612187045
H        3.691010952   2.131008571  13.612180785
