
.Version 7.0.5 of ABINIT 
.(MPI version, prepared for a x86_64_none_intel12.1 computer) 

.Copyright (C) 1998-2012 ABINIT group . 
 ABINIT comes with ABSOLUTELY NO WARRANTY.
 It is free software, and you are welcome to redistribute it
 under certain conditions (GNU General Public License,
 see ~abinit/COPYING or http://www.gnu.org/copyleft/gpl.txt).

 ABINIT is a project of the Universite Catholique de Louvain,
 Corning Inc. and other collaborators, see ~abinit/doc/developers/contributors.txt .
 Please read ~abinit/doc/users/acknowledgments.html for suggested
 acknowledgments of the ABINIT effort.
 For more information, see http://www.abinit.org .

.Starting date : Fri 28 Feb 2014.
- ( at  9h59 )
  
- input  file    -> 10Ha_35Z_12.5h_c16h2.in
- output file    -> 10Ha_35Z_12.5h_c16h2.out
- root for input  files -> 10Ha_35Z_12.5h_c16h2i
- root for output files -> 10Ha_35Z_12.5h_c16h2o


 DATASET    1 : space group P1 (#  1); Bravais aP (primitive triclinic)
================================================================================
 Values of the parameters that define the memory need for DATASET  1.
   intxc =         0  ionmov =         0    iscf =         7 xclevel =         1
  lmnmax =         2   lnmax =         2   mband =        72  mffmem =         1
P  mgfft =       100   mkmem =       172 mpssoang=         3     mpw =      6846
  mqgrid =      4983   natom =        18    nfft =    144000    nkpt =       172
  nloalg =         4  nspden =         1 nspinor =         2  nsppol =         1
    nsym =         1  n1xccc =         0  ntypat =         2  occopt =         1
================================================================================
P This job should need less than                    2646.846 Mbytes of memory.
  Rough estimation (10% accuracy) of disk space for files :
  WF disk file :   1293.655 Mbytes ; DEN or POT disk file :      1.101 Mbytes.
================================================================================

--------------------------------------------------------------------------------
------------- Echo of variables that govern the present computation ------------
--------------------------------------------------------------------------------
-
- outvars: echo of selected default values                                      
-   accesswff0 =  0 , fftalg0 =112 , wfoptalg0 =  0
-
- outvars: echo of global parameters not present in the input file              
-  max_nthreads =    0
-
 -outvars: echo values of preprocessed input variables --------
            acell      9.2999798580E+00  1.6016844817E+01  3.5000000000E+01 Bohr
              amu      1.00794000E+00  1.20110000E+01
           diemac      1.20000000E+01
             ecut      1.00000000E+01 Hartree
           istwfk        0    0    0    0    0    0    0    0    0    0
                         0    0    0    0    0    0    0    0    0    0
                         0    0    0    0    0    0    0    0    0    0
                         0    0    0    0    0    0    0    0    0    0
                         0    0    0    0    0    0    0    0    0    0
                         0    0    0    0    0    0    0    0    0    0
                         0    0    0    0    0    0    0    0    0    0
                         0    0    0    0    0    0    0    0    0    0
                         0    0    0    0    0    0    0    0    0    0
                         0    0    0    0    0    0    0    0    0    0
                         0    0    0    0    0    0    0    0    0    0
                         0    0    0    0    0    0    0    0    0    0
                         0    0    0    0    0    0    0    0    0    0
                         0    0    0    0    0    0    0    0    0    0
                         0    0    0    0    0    0    0    1    0    0
                         0    0    0    0    0    0    0    0    0    0
                         0    0    0    0    0    0    0    0    0    0
                         0    0
           jdtset        1
              kpt      0.00000000E+00  0.00000000E+00  7.14285714E-02
                       1.42857143E-01  0.00000000E+00  7.14285714E-02
                       2.85714286E-01  0.00000000E+00  7.14285714E-02
                       4.28571429E-01  0.00000000E+00  7.14285714E-02
                      -4.28571429E-01  0.00000000E+00  7.14285714E-02
                      -2.85714286E-01  0.00000000E+00  7.14285714E-02
                      -1.42857143E-01  0.00000000E+00  7.14285714E-02
                       0.00000000E+00  1.42857143E-01  7.14285714E-02
                       1.42857143E-01  1.42857143E-01  7.14285714E-02
                       2.85714286E-01  1.42857143E-01  7.14285714E-02
                       4.28571429E-01  1.42857143E-01  7.14285714E-02
                      -4.28571429E-01  1.42857143E-01  7.14285714E-02
                      -2.85714286E-01  1.42857143E-01  7.14285714E-02
                      -1.42857143E-01  1.42857143E-01  7.14285714E-02
                       0.00000000E+00  2.85714286E-01  7.14285714E-02
                       1.42857143E-01  2.85714286E-01  7.14285714E-02
                       2.85714286E-01  2.85714286E-01  7.14285714E-02
                       4.28571429E-01  2.85714286E-01  7.14285714E-02
                      -4.28571429E-01  2.85714286E-01  7.14285714E-02
                      -2.85714286E-01  2.85714286E-01  7.14285714E-02
                      -1.42857143E-01  2.85714286E-01  7.14285714E-02
                       0.00000000E+00  4.28571429E-01  7.14285714E-02
                       1.42857143E-01  4.28571429E-01  7.14285714E-02
                       2.85714286E-01  4.28571429E-01  7.14285714E-02
                       4.28571429E-01  4.28571429E-01  7.14285714E-02
                      -4.28571429E-01  4.28571429E-01  7.14285714E-02
                      -2.85714286E-01  4.28571429E-01  7.14285714E-02
                      -1.42857143E-01  4.28571429E-01  7.14285714E-02
                       0.00000000E+00 -4.28571429E-01  7.14285714E-02
                       1.42857143E-01 -4.28571429E-01  7.14285714E-02
                       2.85714286E-01 -4.28571429E-01  7.14285714E-02
                       4.28571429E-01 -4.28571429E-01  7.14285714E-02
                      -4.28571429E-01 -4.28571429E-01  7.14285714E-02
                      -2.85714286E-01 -4.28571429E-01  7.14285714E-02
                      -1.42857143E-01 -4.28571429E-01  7.14285714E-02
                       0.00000000E+00 -2.85714286E-01  7.14285714E-02
                       1.42857143E-01 -2.85714286E-01  7.14285714E-02
                       2.85714286E-01 -2.85714286E-01  7.14285714E-02
                       4.28571429E-01 -2.85714286E-01  7.14285714E-02
                      -4.28571429E-01 -2.85714286E-01  7.14285714E-02
                      -2.85714286E-01 -2.85714286E-01  7.14285714E-02
                      -1.42857143E-01 -2.85714286E-01  7.14285714E-02
                       0.00000000E+00 -1.42857143E-01  7.14285714E-02
                       1.42857143E-01 -1.42857143E-01  7.14285714E-02
                       2.85714286E-01 -1.42857143E-01  7.14285714E-02
                       4.28571429E-01 -1.42857143E-01  7.14285714E-02
                      -4.28571429E-01 -1.42857143E-01  7.14285714E-02
                      -2.85714286E-01 -1.42857143E-01  7.14285714E-02
                      -1.42857143E-01 -1.42857143E-01  7.14285714E-02
                       0.00000000E+00  0.00000000E+00  2.14285714E-01
                       1.42857143E-01  0.00000000E+00  2.14285714E-01
                       2.85714286E-01  0.00000000E+00  2.14285714E-01
                       4.28571429E-01  0.00000000E+00  2.14285714E-01
                      -4.28571429E-01  0.00000000E+00  2.14285714E-01
                      -2.85714286E-01  0.00000000E+00  2.14285714E-01
                      -1.42857143E-01  0.00000000E+00  2.14285714E-01
                       0.00000000E+00  1.42857143E-01  2.14285714E-01
                       1.42857143E-01  1.42857143E-01  2.14285714E-01
                       2.85714286E-01  1.42857143E-01  2.14285714E-01
                       4.28571429E-01  1.42857143E-01  2.14285714E-01
                      -4.28571429E-01  1.42857143E-01  2.14285714E-01
                      -2.85714286E-01  1.42857143E-01  2.14285714E-01
                      -1.42857143E-01  1.42857143E-01  2.14285714E-01
                       0.00000000E+00  2.85714286E-01  2.14285714E-01
                       1.42857143E-01  2.85714286E-01  2.14285714E-01
                       2.85714286E-01  2.85714286E-01  2.14285714E-01
                       4.28571429E-01  2.85714286E-01  2.14285714E-01
                      -4.28571429E-01  2.85714286E-01  2.14285714E-01
                      -2.85714286E-01  2.85714286E-01  2.14285714E-01
                      -1.42857143E-01  2.85714286E-01  2.14285714E-01
                       0.00000000E+00  4.28571429E-01  2.14285714E-01
                       1.42857143E-01  4.28571429E-01  2.14285714E-01
                       2.85714286E-01  4.28571429E-01  2.14285714E-01
                       4.28571429E-01  4.28571429E-01  2.14285714E-01
                      -4.28571429E-01  4.28571429E-01  2.14285714E-01
                      -2.85714286E-01  4.28571429E-01  2.14285714E-01
                      -1.42857143E-01  4.28571429E-01  2.14285714E-01
                       0.00000000E+00 -4.28571429E-01  2.14285714E-01
                       1.42857143E-01 -4.28571429E-01  2.14285714E-01
                       2.85714286E-01 -4.28571429E-01  2.14285714E-01
                       4.28571429E-01 -4.28571429E-01  2.14285714E-01
                      -4.28571429E-01 -4.28571429E-01  2.14285714E-01
                      -2.85714286E-01 -4.28571429E-01  2.14285714E-01
                      -1.42857143E-01 -4.28571429E-01  2.14285714E-01
                       0.00000000E+00 -2.85714286E-01  2.14285714E-01
                       1.42857143E-01 -2.85714286E-01  2.14285714E-01
                       2.85714286E-01 -2.85714286E-01  2.14285714E-01
                       4.28571429E-01 -2.85714286E-01  2.14285714E-01
                      -4.28571429E-01 -2.85714286E-01  2.14285714E-01
                      -2.85714286E-01 -2.85714286E-01  2.14285714E-01
                      -1.42857143E-01 -2.85714286E-01  2.14285714E-01
                       0.00000000E+00 -1.42857143E-01  2.14285714E-01
                       1.42857143E-01 -1.42857143E-01  2.14285714E-01
                       2.85714286E-01 -1.42857143E-01  2.14285714E-01
                       4.28571429E-01 -1.42857143E-01  2.14285714E-01
                      -4.28571429E-01 -1.42857143E-01  2.14285714E-01
                      -2.85714286E-01 -1.42857143E-01  2.14285714E-01
                      -1.42857143E-01 -1.42857143E-01  2.14285714E-01
                       0.00000000E+00  0.00000000E+00  3.57142857E-01
                       1.42857143E-01  0.00000000E+00  3.57142857E-01
                       2.85714286E-01  0.00000000E+00  3.57142857E-01
                       4.28571429E-01  0.00000000E+00  3.57142857E-01
                      -4.28571429E-01  0.00000000E+00  3.57142857E-01
                      -2.85714286E-01  0.00000000E+00  3.57142857E-01
                      -1.42857143E-01  0.00000000E+00  3.57142857E-01
                       0.00000000E+00  1.42857143E-01  3.57142857E-01
                       1.42857143E-01  1.42857143E-01  3.57142857E-01
                       2.85714286E-01  1.42857143E-01  3.57142857E-01
                       4.28571429E-01  1.42857143E-01  3.57142857E-01
                      -4.28571429E-01  1.42857143E-01  3.57142857E-01
                      -2.85714286E-01  1.42857143E-01  3.57142857E-01
                      -1.42857143E-01  1.42857143E-01  3.57142857E-01
                       0.00000000E+00  2.85714286E-01  3.57142857E-01
                       1.42857143E-01  2.85714286E-01  3.57142857E-01
                       2.85714286E-01  2.85714286E-01  3.57142857E-01
                       4.28571429E-01  2.85714286E-01  3.57142857E-01
                      -4.28571429E-01  2.85714286E-01  3.57142857E-01
                      -2.85714286E-01  2.85714286E-01  3.57142857E-01
                      -1.42857143E-01  2.85714286E-01  3.57142857E-01
                       0.00000000E+00  4.28571429E-01  3.57142857E-01
                       1.42857143E-01  4.28571429E-01  3.57142857E-01
                       2.85714286E-01  4.28571429E-01  3.57142857E-01
                       4.28571429E-01  4.28571429E-01  3.57142857E-01
                      -4.28571429E-01  4.28571429E-01  3.57142857E-01
                      -2.85714286E-01  4.28571429E-01  3.57142857E-01
                      -1.42857143E-01  4.28571429E-01  3.57142857E-01
                       0.00000000E+00 -4.28571429E-01  3.57142857E-01
                       1.42857143E-01 -4.28571429E-01  3.57142857E-01
                       2.85714286E-01 -4.28571429E-01  3.57142857E-01
                       4.28571429E-01 -4.28571429E-01  3.57142857E-01
                      -4.28571429E-01 -4.28571429E-01  3.57142857E-01
                      -2.85714286E-01 -4.28571429E-01  3.57142857E-01
                      -1.42857143E-01 -4.28571429E-01  3.57142857E-01
                       0.00000000E+00 -2.85714286E-01  3.57142857E-01
                       1.42857143E-01 -2.85714286E-01  3.57142857E-01
                       2.85714286E-01 -2.85714286E-01  3.57142857E-01
                       4.28571429E-01 -2.85714286E-01  3.57142857E-01
                      -4.28571429E-01 -2.85714286E-01  3.57142857E-01
                      -2.85714286E-01 -2.85714286E-01  3.57142857E-01
                      -1.42857143E-01 -2.85714286E-01  3.57142857E-01
                       0.00000000E+00 -1.42857143E-01  3.57142857E-01
                       1.42857143E-01 -1.42857143E-01  3.57142857E-01
                       2.85714286E-01 -1.42857143E-01  3.57142857E-01
                       4.28571429E-01 -1.42857143E-01  3.57142857E-01
                      -4.28571429E-01 -1.42857143E-01  3.57142857E-01
                      -2.85714286E-01 -1.42857143E-01  3.57142857E-01
                      -1.42857143E-01 -1.42857143E-01  3.57142857E-01
                       0.00000000E+00  0.00000000E+00  5.00000000E-01
                       1.42857143E-01  0.00000000E+00  5.00000000E-01
                       2.85714286E-01  0.00000000E+00  5.00000000E-01
                       4.28571429E-01  0.00000000E+00  5.00000000E-01
                       0.00000000E+00  1.42857143E-01  5.00000000E-01
                       1.42857143E-01  1.42857143E-01  5.00000000E-01
                       2.85714286E-01  1.42857143E-01  5.00000000E-01
                       4.28571429E-01  1.42857143E-01  5.00000000E-01
                      -4.28571429E-01  1.42857143E-01  5.00000000E-01
                      -2.85714286E-01  1.42857143E-01  5.00000000E-01
                      -1.42857143E-01  1.42857143E-01  5.00000000E-01
                       0.00000000E+00  2.85714286E-01  5.00000000E-01
                       1.42857143E-01  2.85714286E-01  5.00000000E-01
                       2.85714286E-01  2.85714286E-01  5.00000000E-01
                       4.28571429E-01  2.85714286E-01  5.00000000E-01
                      -4.28571429E-01  2.85714286E-01  5.00000000E-01
                      -2.85714286E-01  2.85714286E-01  5.00000000E-01
                      -1.42857143E-01  2.85714286E-01  5.00000000E-01
                       0.00000000E+00  4.28571429E-01  5.00000000E-01
                       1.42857143E-01  4.28571429E-01  5.00000000E-01
                       2.85714286E-01  4.28571429E-01  5.00000000E-01
                       4.28571429E-01  4.28571429E-01  5.00000000E-01
                      -4.28571429E-01  4.28571429E-01  5.00000000E-01
                      -2.85714286E-01  4.28571429E-01  5.00000000E-01
                      -1.42857143E-01  4.28571429E-01  5.00000000E-01
         kptrlatt        7    0    0      0    7    0      0    0    7
          kptrlen      6.50998590E+01
P           mkmem         172
            natom          18
            nband          72
           ndtset           1
            ngfft          30      48     100
             nkpt         172
          nspinor           2
            nstep         200
             nsym           1
           ntypat           2
              occ      1.000000  1.000000  1.000000  1.000000  1.000000  1.000000
                       1.000000  1.000000  1.000000  1.000000  1.000000  1.000000
                       1.000000  1.000000  1.000000  1.000000  1.000000  1.000000
                       1.000000  1.000000  1.000000  1.000000  1.000000  1.000000
                       1.000000  1.000000  1.000000  1.000000  1.000000  1.000000
                       1.000000  1.000000  1.000000  1.000000  1.000000  1.000000
                       1.000000  1.000000  1.000000  1.000000  1.000000  1.000000
                       1.000000  1.000000  1.000000  1.000000  1.000000  1.000000
                       1.000000  1.000000  1.000000  1.000000  1.000000  1.000000
                       1.000000  1.000000  1.000000  1.000000  1.000000  1.000000
                       1.000000  1.000000  1.000000  1.000000  1.000000  1.000000
                       0.000000  0.000000  0.000000  0.000000  0.000000  0.000000
           prtden           0
           prtvol          -1
            rprim      8.6602540378E-01 -5.0000000000E-01  0.0000000000E+00
                       0.0000000000E+00  1.0000000000E+00  0.0000000000E+00
                       0.0000000000E+00  0.0000000000E+00  1.0000000000E+00
           shiftk      0.00000000E+00  0.00000000E+00  5.00000000E-01
           so_psp           2       2
          spgroup           1
           toldfe      1.00000000E-06 Hartree
            typat      1  1  2  2  2  2  2  2  2  2  2  2  2  2  2  2  2  2
              wtk        0.00583    0.00583    0.00583    0.00583    0.00583    0.00583
                         0.00583    0.00583    0.00583    0.00583    0.00583    0.00583
                         0.00583    0.00583    0.00583    0.00583    0.00583    0.00583
                         0.00583    0.00583    0.00583    0.00583    0.00583    0.00583
                         0.00583    0.00583    0.00583    0.00583    0.00583    0.00583
                         0.00583    0.00583    0.00583    0.00583    0.00583    0.00583
                         0.00583    0.00583    0.00583    0.00583    0.00583    0.00583
                         0.00583    0.00583    0.00583    0.00583    0.00583    0.00583
                         0.00583    0.00583    0.00583    0.00583    0.00583    0.00583
                         0.00583    0.00583    0.00583    0.00583    0.00583    0.00583
                         0.00583    0.00583    0.00583    0.00583    0.00583    0.00583
                         0.00583    0.00583    0.00583    0.00583    0.00583    0.00583
                         0.00583    0.00583    0.00583    0.00583    0.00583    0.00583
                         0.00583    0.00583    0.00583    0.00583    0.00583    0.00583
                         0.00583    0.00583    0.00583    0.00583    0.00583    0.00583
                         0.00583    0.00583    0.00583    0.00583    0.00583    0.00583
                         0.00583    0.00583    0.00583    0.00583    0.00583    0.00583
                         0.00583    0.00583    0.00583    0.00583    0.00583    0.00583
                         0.00583    0.00583    0.00583    0.00583    0.00583    0.00583
                         0.00583    0.00583    0.00583    0.00583    0.00583    0.00583
                         0.00583    0.00583    0.00583    0.00583    0.00583    0.00583
                         0.00583    0.00583    0.00583    0.00583    0.00583    0.00583
                         0.00583    0.00583    0.00583    0.00583    0.00583    0.00583
                         0.00583    0.00583    0.00583    0.00583    0.00583    0.00583
                         0.00583    0.00583    0.00583    0.00292    0.00583    0.00583
                         0.00583    0.00583    0.00583    0.00583    0.00583    0.00583
                         0.00583    0.00583    0.00583    0.00583    0.00583    0.00583
                         0.00583    0.00583    0.00583    0.00583    0.00583    0.00583
                         0.00583    0.00583    0.00583    0.00583
           xangst      1.2983449614E+00  2.3117893741E+00  1.0840060062E+01
                       1.2984786760E+00  3.2923220602E+00  1.3698051839E+01
                       5.9500388465E-02 -3.8983770038E-02  1.2230954367E+01
                       2.5380097097E+00 -3.8978349147E-02  1.2230882244E+01
                       4.3493510816E-02  4.2447934870E+00  1.2330302669E+01
                       2.5538820986E+00  4.2447874041E+00  1.2330335429E+01
                       4.3464399719E-02  1.3588865113E+00  1.2207454222E+01
                       2.5538740614E+00  1.3589014695E+00  1.2207313982E+01
                       5.9525206347E-02  5.6426622712E+00  1.2305991599E+01
                       2.5380149428E+00  5.6426632671E+00  1.2305994237E+01
                       1.2986463659E+00  2.1183232916E+00  1.1945660271E+01
                       3.7593542865E+00  2.0682838598E+00  1.2263419996E+01
                       1.2987842509E+00  6.3693848662E+00  1.2301109390E+01
                       3.7594560658E+00  6.3544740600E+00  1.2275289016E+01
                       1.2986797549E+00  3.4854286965E+00  1.2592374621E+01
                       3.7593693776E+00  3.5353630517E+00  1.2274748378E+01
                       1.2987735801E+00  7.7583733012E+00  1.2235505840E+01
                       3.7594422707E+00  7.7732376673E+00  1.2261502376E+01
            xcart      2.4535164030E+00  4.3686487940E+00  2.0484744782E+01
                       2.4537690870E+00  6.2215870350E+00  2.5885566530E+01
                       1.1243943900E-01 -7.3668649000E-02  2.3113154097E+01
                       4.7961432740E+00 -7.3658405000E-02  2.3113017804E+01
                       8.2190824000E-02  8.0214971810E+00  2.3300895180E+01
                       4.8261377420E+00  8.0214856860E+00  2.3300957088E+01
                       8.2135812000E-02  2.5679233520E+00  2.3068745260E+01
                       4.8261225540E+00  2.5679516190E+00  2.3068480245E+01
                       1.1248633800E-01  1.0663086353E+01  2.3254953916E+01
                       4.7961531630E+00  1.0663088235E+01  2.3254958901E+01
                       2.4540859750E+00  4.0030508820E+00  2.2574026388E+01
                       7.1041500380E+00  3.9084900600E+00  2.3174505245E+01
                       2.4543465400E+00  1.2036393032E+01  2.3245727877E+01
                       7.1043423730E+00  1.2008215692E+01  2.3196934443E+01
                       2.4541490710E+00  6.5865056920E+00  2.3796139397E+01
                       7.1041785560E+00  6.6808679480E+00  2.3195912785E+01
                       2.4543263750E+00  1.4661200776E+01  2.3121755134E+01
                       7.1043163040E+00  1.4689290357E+01  2.3170881469E+01
             xred      3.0463256423E-01  3.6119393150E-01  5.8527842234E-01
                       3.0466393789E-01  4.7688988469E-01  7.3958761514E-01
                       1.3960662575E-02 -5.4640653174E-04  6.6037583134E-01
                       5.9549690485E-01  1.6828509211E-01  6.6037193726E-01
                       1.0204945620E-02  5.0377900064E-01  6.6573986229E-01
                       5.9922106650E-01  6.7478069083E-01  6.6574163109E-01
                       1.0198115242E-02  1.6328712147E-01  6.5910700743E-01
                       5.9921918074E-01  3.3429272968E-01  6.5909943557E-01
                       1.3966485630E-02  6.6979673544E-01  6.6442725474E-01
                       5.9549813269E-01  8.3862637793E-01  6.6442739717E-01
                       3.0470328321E-01  3.3838862411E-01  6.4497218251E-01
                       8.8206275700E-01  5.0010305327E-01  6.6212872129E-01
                       3.0473563539E-01  8.3995386240E-01  6.6416365363E-01
                       8.8208663763E-01  1.0058104363E+00  6.6276955551E-01
                       3.0471111732E-01  4.9968701141E-01  6.7988969706E-01
                       8.8206629784E-01  6.7319546845E-01  6.6274036529E-01
                       3.0473313167E-01  1.0038310886E+00  6.6062157526E-01
                       8.8208340086E-01  1.1732004338E+00  6.6202518483E-01
            znucl        1.00000    6.00000

================================================================================

 chkinp: Checking input parameters for consistency, jdtset=   1.

 abinit : before driver, prtvol=-1, debugging mode => will skip driver

== END DATASET(S) ==============================================================
================================================================================

 abinit : before driver, prtvol=-1, debugging mode => will skip outvars


- Timing analysis has been suppressed with timopt=0



 abinit : before driver, prtvol=-1, debugging mode => will skip acknowledgments
-
- Proc.   0 individual time (sec): cpu=          0.4  wall=          0.4

================================================================================

 Calculation completed.
.Delivered    1 WARNINGs and   2 COMMENTs to log file.
+Overall time at end (sec) : cpu=          0.4  wall=          0.4
